MODEL 1
REMARK VINA RESULT:     0.000      0.000      0.000
REMARK INTER + INTRA:           0.000
REMARK INTER:                   0.000
REMARK INTRA:                   0.000
REMARK UNBOUND:                 0.000
REMARK  1 active torsions:
REMARK  status: ('A' for Active; 'I' for Inactive)
ROOT
ATOM      1  C   UNL     1     -12.863   0.419 -16.849  0.00  0.00    +0.086 C 
ATOM      2  C   UNL     1     -13.971  -0.328 -17.563  0.00  0.00    +0.131 C 
ATOM      3  O   UNL     1     -13.728  -1.337 -18.217  0.00  0.00    -0.298 OA
ATOM      4  C   UNL     1     -15.357   0.286 -17.488  0.00  0.00    +0.087 C 
ATOM      5  C   UNL     1     -16.616  -0.606 -17.295  0.00  0.00    +0.067 C 
ATOM      6  C   UNL     1     -17.174  -1.416 -18.472  0.00  0.00    -0.039 A 
ATOM      7  C   UNL     1     -16.502  -1.600 -19.686  0.00  0.00    +0.004 A 
ATOM      8  C   UNL     1     -17.112  -2.278 -20.750  0.00  0.00    +0.000 A 
ATOM      9  C   UNL     1     -18.402  -2.788 -20.623  0.00  0.00    +0.000 A 
ATOM     10  C   UNL     1     -19.094  -2.610 -19.434  0.00  0.00    +0.000 A 
ATOM     11  C   UNL     1     -18.492  -1.925 -18.379  0.00  0.00    +0.004 A 
ATOM     12  C   UNL     1     -16.797  -1.354 -15.959  0.00  0.00    +0.087 A 
ATOM     13  C   UNL     1     -17.803  -1.011 -15.121  0.00  0.00    +0.138 A 
ATOM     14  O   UNL     1     -18.246  -1.845 -14.113  0.00  0.00    -0.506 OA
ATOM     15  C   UNL     1     -17.535   0.349 -14.636  0.00  0.00    +0.059 A 
ATOM     16  C   UNL     1     -16.220   0.563 -14.192  0.00  0.00    +0.143 A 
ATOM     17  O   UNL     1     -15.308  -0.523 -14.224  0.00  0.00    -0.422 OA
ATOM     18  C   UNL     1     -15.577  -1.566 -15.128  0.00  0.00    +0.345 A 
ATOM     19  O   UNL     1     -14.852  -2.543 -15.253  0.00  0.00    -0.245 OA
ATOM     20  C   UNL     1     -15.726   1.836 -13.953  0.00  0.00    +0.047 A 
ATOM     21  C   UNL     1     -16.550   2.922 -14.244  0.00  0.00    +0.004 A 
ATOM     22  C   UNL     1     -17.863   2.724 -14.699  0.00  0.00    +0.001 A 
ATOM     23  C   UNL     1     -18.372   1.434 -14.870  0.00  0.00    +0.015 A 
ATOM     24  H   UNL     1     -18.205  -2.763 -14.442  0.00  0.00    +0.292 HD
ENDROOT
TORSDOF 1
ENDMDL
MODEL 2
REMARK VINA RESULT:     0.000      2.482      3.459
REMARK INTER + INTRA:           0.000
REMARK INTER:                   0.000
REMARK INTRA:                   0.000
REMARK UNBOUND:                 0.000
REMARK  1 active torsions:
REMARK  status: ('A' for Active; 'I' for Inactive)
ROOT
ATOM      1  C   UNL     1     -14.781   2.304 -15.891  0.00  0.00    +0.086 C 
ATOM      2  C   UNL     1     -15.677   1.111 -16.155  0.00  0.00    +0.131 C 
ATOM      3  O   UNL     1     -15.334  -0.019 -15.819  0.00  0.00    -0.298 OA
ATOM      4  C   UNL     1     -16.959   1.384 -16.919  0.00  0.00    +0.087 C 
ATOM      5  C   UNL     1     -18.290   0.684 -16.522  0.00  0.00    +0.067 C 
ATOM      6  C   UNL     1     -18.528  -0.785 -16.895  0.00  0.00    -0.039 A 
ATOM      7  C   UNL     1     -17.534  -1.640 -17.386  0.00  0.00    +0.004 A 
ATOM      8  C   UNL     1     -17.845  -2.945 -17.790  0.00  0.00    +0.000 A 
ATOM      9  C   UNL     1     -19.151  -3.423 -17.712  0.00  0.00    +0.000 A 
ATOM     10  C   UNL     1     -20.157  -2.593 -17.240  0.00  0.00    +0.000 A 
ATOM     11  C   UNL     1     -19.850  -1.289 -16.849  0.00  0.00    +0.004 A 
ATOM     12  C   UNL     1     -18.937   1.033 -15.168  0.00  0.00    +0.087 A 
ATOM     13  C   UNL     1     -20.118   1.694 -15.131  0.00  0.00    +0.138 A 
ATOM     14  O   UNL     1     -20.921   1.718 -14.008  0.00  0.00    -0.506 OA
ATOM     15  C   UNL     1     -19.894   3.039 -15.679  0.00  0.00    +0.059 A 
ATOM     16  C   UNL     1     -18.766   3.698 -15.167  0.00  0.00    +0.143 A 
ATOM     17  O   UNL     1     -17.987   3.043 -14.179  0.00  0.00    -0.422 OA
ATOM     18  C   UNL     1     -18.055   1.640 -14.129  0.00  0.00    +0.345 A 
ATOM     19  O   UNL     1     -17.415   0.969 -13.331  0.00  0.00    -0.245 OA
ATOM     20  C   UNL     1     -18.260   4.847 -15.754  0.00  0.00    +0.047 A 
ATOM     21  C   UNL     1     -18.856   5.296 -16.932  0.00  0.00    +0.004 A 
ATOM     22  C   UNL     1     -19.978   4.640 -17.462  0.00  0.00    +0.001 A 
ATOM     23  C   UNL     1     -20.521   3.523 -16.822  0.00  0.00    +0.015 A 
ATOM     24  H   UNL     1     -20.861   0.844 -13.576  0.00  0.00    +0.292 HD
ENDROOT
TORSDOF 1
ENDMDL
MODEL 3
REMARK VINA RESULT:     0.000      3.419      4.154
REMARK INTER + INTRA:           0.000
REMARK INTER:                   0.000
REMARK INTRA:                   0.000
REMARK UNBOUND:                 0.000
REMARK  1 active torsions:
REMARK  status: ('A' for Active; 'I' for Inactive)
ROOT
ATOM      1  C   UNL     1     -15.462   2.480 -17.529  0.00  0.00    +0.086 C 
ATOM      2  C   UNL     1     -16.261   1.300 -18.044  0.00  0.00    +0.131 C 
ATOM      3  O   UNL     1     -15.922   0.150 -17.781  0.00  0.00    -0.298 OA
ATOM      4  C   UNL     1     -17.433   1.622 -18.952  0.00  0.00    +0.087 C 
ATOM      5  C   UNL     1     -18.776   0.847 -18.828  0.00  0.00    +0.067 C 
ATOM      6  C   UNL     1     -18.897  -0.578 -19.383  0.00  0.00    -0.039 A 
ATOM      7  C   UNL     1     -17.809  -1.348 -19.811  0.00  0.00    +0.004 A 
ATOM      8  C   UNL     1     -18.004  -2.609 -20.391  0.00  0.00    +0.000 A 
ATOM      9  C   UNL     1     -19.287  -3.127 -20.553  0.00  0.00    +0.000 A 
ATOM     10  C   UNL     1     -20.383  -2.380 -20.148  0.00  0.00    +0.000 A 
ATOM     11  C   UNL     1     -20.190  -1.120 -19.582  0.00  0.00    +0.004 A 
ATOM     12  C   UNL     1     -19.622   1.028 -17.552  0.00  0.00    +0.087 A 
ATOM     13  C   UNL     1     -20.823   1.650 -17.618  0.00  0.00    +0.138 A 
ATOM     14  O   UNL     1     -21.777   1.529 -16.627  0.00  0.00    -0.506 OA
ATOM     15  C   UNL     1     -20.581   3.051 -17.985  0.00  0.00    +0.059 A 
ATOM     16  C   UNL     1     -19.564   3.680 -17.248  0.00  0.00    +0.143 A 
ATOM     17  O   UNL     1     -18.906   2.942 -16.231  0.00  0.00    -0.422 OA
ATOM     18  C   UNL     1     -18.921   1.540 -16.339  0.00  0.00    +0.345 A 
ATOM     19  O   UNL     1     -18.373   0.804 -15.531  0.00  0.00    -0.245 OA
ATOM     20  C   UNL     1     -19.030   4.900 -17.633  0.00  0.00    +0.047 A 
ATOM     21  C   UNL     1     -19.472   5.460 -18.831  0.00  0.00    +0.004 A 
ATOM     22  C   UNL     1     -20.479   4.836 -19.584  0.00  0.00    +0.001 A 
ATOM     23  C   UNL     1     -21.059   3.641 -19.149  0.00  0.00    +0.015 A 
ATOM     24  H   UNL     1     -21.742   0.615 -16.285  0.00  0.00    +0.292 HD
ENDROOT
TORSDOF 1
ENDMDL
MODEL 4
REMARK VINA RESULT:     0.000      3.368      4.481
REMARK INTER + INTRA:           0.000
REMARK INTER:                   0.000
REMARK INTRA:                   0.000
REMARK UNBOUND:                 0.000
REMARK  1 active torsions:
REMARK  status: ('A' for Active; 'I' for Inactive)
ROOT
ATOM      1  C   UNL     1     -15.711   2.029 -17.910  0.00  0.00    +0.086 C 
ATOM      2  C   UNL     1     -16.109   0.594 -18.187  0.00  0.00    +0.131 C 
ATOM      3  O   UNL     1     -15.629  -0.328 -17.534  0.00  0.00    -0.298 OA
ATOM      4  C   UNL     1     -17.053   0.368 -19.353  0.00  0.00    +0.087 C 
ATOM      5  C   UNL     1     -18.207  -0.671 -19.257  0.00  0.00    +0.067 C 
ATOM      6  C   UNL     1     -17.904  -2.170 -19.372  0.00  0.00    -0.039 A 
ATOM      7  C   UNL     1     -16.615  -2.715 -19.338  0.00  0.00    +0.004 A 
ATOM      8  C   UNL     1     -16.408  -4.087 -19.539  0.00  0.00    +0.000 A 
ATOM      9  C   UNL     1     -17.483  -4.941 -19.776  0.00  0.00    +0.000 A 
ATOM     10  C   UNL     1     -18.769  -4.426 -19.826  0.00  0.00    +0.000 A 
ATOM     11  C   UNL     1     -18.974  -3.059 -19.638  0.00  0.00    +0.004 A 
ATOM     12  C   UNL     1     -19.365  -0.404 -18.276  0.00  0.00    +0.087 A 
ATOM     13  C   UNL     1     -20.609  -0.149 -18.749  0.00  0.00    +0.138 A 
ATOM     14  O   UNL     1     -21.739  -0.262 -17.964  0.00  0.00    -0.506 OA
ATOM     15  C   UNL     1     -20.559   1.132 -19.466  0.00  0.00    +0.059 A 
ATOM     16  C   UNL     1     -19.904   2.163 -18.775  0.00  0.00    +0.143 A 
ATOM     17  O   UNL     1     -19.392   1.894 -17.479  0.00  0.00    -0.422 OA
ATOM     18  C   UNL     1     -19.107   0.555 -17.164  0.00  0.00    +0.345 A 
ATOM     19  O   UNL     1     -18.648   0.208 -16.084  0.00  0.00    -0.245 OA
ATOM     20  C   UNL     1     -19.537   3.345 -19.400  0.00  0.00    +0.047 A 
ATOM     21  C   UNL     1     -19.764   3.457 -20.771  0.00  0.00    +0.004 A 
ATOM     22  C   UNL     1     -20.407   2.429 -21.477  0.00  0.00    +0.001 A 
ATOM     23  C   UNL     1     -20.834   1.271 -20.822  0.00  0.00    +0.015 A 
ATOM     24  H   UNL     1     -21.614  -1.022 -17.364  0.00  0.00    +0.292 HD
ENDROOT
TORSDOF 1
ENDMDL
MODEL 5
REMARK VINA RESULT:     0.000      2.697      3.696
REMARK INTER + INTRA:           0.000
REMARK INTER:                   0.000
REMARK INTRA:                   0.000
REMARK UNBOUND:                 0.000
REMARK  1 active torsions:
REMARK  status: ('A' for Active; 'I' for Inactive)
ROOT
ATOM      1  C   UNL     1     -14.397   0.612 -17.026  0.00  0.00    +0.086 C 
ATOM      2  C   UNL     1     -14.795  -0.823 -17.304  0.00  0.00    +0.131 C 
ATOM      3  O   UNL     1     -14.316  -1.745 -16.651  0.00  0.00    -0.298 OA
ATOM      4  C   UNL     1     -15.740  -1.049 -18.469  0.00  0.00    +0.087 C 
ATOM      5  C   UNL     1     -16.893  -2.089 -18.373  0.00  0.00    +0.067 C 
ATOM      6  C   UNL     1     -16.590  -3.587 -18.489  0.00  0.00    -0.039 A 
ATOM      7  C   UNL     1     -15.301  -4.132 -18.454  0.00  0.00    +0.004 A 
ATOM      8  C   UNL     1     -15.095  -5.504 -18.655  0.00  0.00    +0.000 A 
ATOM      9  C   UNL     1     -16.169  -6.358 -18.892  0.00  0.00    +0.000 A 
ATOM     10  C   UNL     1     -17.456  -5.843 -18.943  0.00  0.00    +0.000 A 
ATOM     11  C   UNL     1     -17.660  -4.476 -18.755  0.00  0.00    +0.004 A 
ATOM     12  C   UNL     1     -18.052  -1.821 -17.393  0.00  0.00    +0.087 A 
ATOM     13  C   UNL     1     -19.295  -1.566 -17.865  0.00  0.00    +0.138 A 
ATOM     14  O   UNL     1     -20.425  -1.679 -17.081  0.00  0.00    -0.506 OA
ATOM     15  C   UNL     1     -19.245  -0.285 -18.583  0.00  0.00    +0.059 A 
ATOM     16  C   UNL     1     -18.590   0.746 -17.891  0.00  0.00    +0.143 A 
ATOM     17  O   UNL     1     -18.079   0.477 -16.596  0.00  0.00    -0.422 OA
ATOM     18  C   UNL     1     -17.793  -0.862 -16.280  0.00  0.00    +0.345 A 
ATOM     19  O   UNL     1     -17.334  -1.209 -15.201  0.00  0.00    -0.245 OA
ATOM     20  C   UNL     1     -18.224   1.928 -18.517  0.00  0.00    +0.047 A 
ATOM     21  C   UNL     1     -18.450   2.040 -19.888  0.00  0.00    +0.004 A 
ATOM     22  C   UNL     1     -19.093   1.012 -20.594  0.00  0.00    +0.001 A 
ATOM     23  C   UNL     1     -19.521  -0.146 -19.938  0.00  0.00    +0.015 A 
ATOM     24  H   UNL     1     -20.300  -2.439 -16.480  0.00  0.00    +0.292 HD
ENDROOT
TORSDOF 1
ENDMDL
MODEL 6
REMARK VINA RESULT:     0.000      2.860      3.685
REMARK INTER + INTRA:           0.000
REMARK INTER:                   0.000
REMARK INTRA:                   0.000
REMARK UNBOUND:                 0.000
REMARK  1 active torsions:
REMARK  status: ('A' for Active; 'I' for Inactive)
ROOT
ATOM      1  C   UNL     1     -14.397   0.612 -17.026  0.00  0.00    +0.086 C 
ATOM      2  C   UNL     1     -14.366  -0.900 -17.109  0.00  0.00    +0.131 C 
ATOM      3  O   UNL     1     -13.418  -1.534 -16.657  0.00  0.00    -0.298 OA
ATOM      4  C   UNL     1     -15.517  -1.561 -17.844  0.00  0.00    +0.087 C 
ATOM      5  C   UNL     1     -16.156  -2.875 -17.311  0.00  0.00    +0.067 C 
ATOM      6  C   UNL     1     -15.432  -4.214 -17.497  0.00  0.00    -0.039 A 
ATOM      7  C   UNL     1     -14.105  -4.335 -17.925  0.00  0.00    +0.004 A 
ATOM      8  C   UNL     1     -13.536  -5.595 -18.158  0.00  0.00    +0.000 A 
ATOM      9  C   UNL     1     -14.280  -6.757 -17.968  0.00  0.00    +0.000 A 
ATOM     10  C   UNL     1     -15.601  -6.665 -17.556  0.00  0.00    +0.000 A 
ATOM     11  C   UNL     1     -16.170  -5.411 -17.335  0.00  0.00    +0.004 A 
ATOM     12  C   UNL     1     -16.934  -2.835 -15.981  0.00  0.00    +0.087 A 
ATOM     13  C   UNL     1     -18.273  -3.035 -15.972  0.00  0.00    +0.138 A 
ATOM     14  O   UNL     1     -18.966  -3.372 -14.827  0.00  0.00    -0.506 OA
ATOM     15  C   UNL     1     -18.897  -1.912 -16.685  0.00  0.00    +0.059 A 
ATOM     16  C   UNL     1     -18.428  -0.645 -16.302  0.00  0.00    +0.143 A 
ATOM     17  O   UNL     1     -17.450  -0.563 -15.278  0.00  0.00    -0.422 OA
ATOM     18  C   UNL     1     -16.648  -1.697 -15.060  0.00  0.00    +0.345 A 
ATOM     19  O   UNL     1     -15.763  -1.735 -14.216  0.00  0.00    -0.245 OA
ATOM     20  C   UNL     1     -18.708   0.493 -17.043  0.00  0.00    +0.047 A 
ATOM     21  C   UNL     1     -19.408   0.339 -18.239  0.00  0.00    +0.004 A 
ATOM     22  C   UNL     1     -19.872  -0.923 -18.640  0.00  0.00    +0.001 A 
ATOM     23  C   UNL     1     -19.644  -2.052 -17.849  0.00  0.00    +0.015 A 
ATOM     24  H   UNL     1     -18.401  -3.968 -14.297  0.00  0.00    +0.292 HD
ENDROOT
TORSDOF 1
ENDMDL
MODEL 7
REMARK VINA RESULT:     0.000      6.299      9.304
REMARK INTER + INTRA:           0.000
REMARK INTER:                   0.000
REMARK INTRA:                   0.000
REMARK UNBOUND:                 0.000
REMARK  1 active torsions:
REMARK  status: ('A' for Active; 'I' for Inactive)
ROOT
ATOM      1  C   UNL     1     -12.580   3.773 -17.706  0.00  0.00    +0.086 C 
ATOM      2  C   UNL     1     -11.847   2.450 -17.807  0.00  0.00    +0.131 C 
ATOM      3  O   UNL     1     -12.465   1.400 -17.950  0.00  0.00    -0.298 OA
ATOM      4  C   UNL     1     -10.340   2.499 -17.641  0.00  0.00    +0.087 C 
ATOM      5  C   UNL     1      -9.409   1.628 -18.532  0.00  0.00    +0.067 C 
ATOM      6  C   UNL     1      -9.267   0.125 -18.259  0.00  0.00    -0.039 A 
ATOM      7  C   UNL     1     -10.092  -0.595 -17.387  0.00  0.00    +0.004 A 
ATOM      8  C   UNL     1      -9.846  -1.948 -17.118  0.00  0.00    +0.000 A 
ATOM      9  C   UNL     1      -8.775  -2.609 -17.714  0.00  0.00    +0.000 A 
ATOM     10  C   UNL     1      -7.935  -1.916 -18.573  0.00  0.00    +0.000 A 
ATOM     11  C   UNL     1      -8.172  -0.566 -18.831  0.00  0.00    +0.004 A 
ATOM     12  C   UNL     1      -9.325   1.937 -20.040  0.00  0.00    +0.087 A 
ATOM     13  C   UNL     1      -8.176   2.417 -20.571  0.00  0.00    +0.138 A 
ATOM     14  O   UNL     1      -7.907   2.371 -21.924  0.00  0.00    -0.506 OA
ATOM     15  C   UNL     1      -7.950   3.755 -20.007  0.00  0.00    +0.059 A 
ATOM     16  C   UNL     1      -9.075   4.595 -20.027  0.00  0.00    +0.143 A 
ATOM     17  O   UNL     1     -10.278   4.105 -20.596  0.00  0.00    -0.422 OA
ATOM     18  C   UNL     1     -10.451   2.711 -20.639  0.00  0.00    +0.345 A 
ATOM     19  O   UNL     1     -11.454   2.178 -21.092  0.00  0.00    -0.245 OA
ATOM     20  C   UNL     1      -9.115   5.779 -19.308  0.00  0.00    +0.047 A 
ATOM     21  C   UNL     1      -8.030   6.084 -18.487  0.00  0.00    +0.004 A 
ATOM     22  C   UNL     1      -6.904   5.247 -18.448  0.00  0.00    +0.001 A 
ATOM     23  C   UNL     1      -6.846   4.092 -19.231  0.00  0.00    +0.015 A 
ATOM     24  H   UNL     1      -8.270   1.536 -22.275  0.00  0.00    +0.292 HD
ENDROOT
TORSDOF 1
ENDMDL
MODEL 8
REMARK VINA RESULT:     0.000      6.721     10.012
REMARK INTER + INTRA:           0.000
REMARK INTER:                   0.000
REMARK INTRA:                   0.000
REMARK UNBOUND:                 0.000
REMARK  1 active torsions:
REMARK  status: ('A' for Active; 'I' for Inactive)
ROOT
ATOM      1  C   UNL     1     -11.153   1.493 -18.348  0.00  0.00    +0.086 C 
ATOM      2  C   UNL     1     -10.668   0.152 -18.860  0.00  0.00    +0.131 C 
ATOM      3  O   UNL     1     -11.437  -0.620 -19.423  0.00  0.00    -0.298 OA
ATOM      4  C   UNL     1      -9.222  -0.200 -18.567  0.00  0.00    +0.087 C 
ATOM      5  C   UNL     1      -8.339  -0.907 -19.634  0.00  0.00    +0.067 C 
ATOM      6  C   UNL     1      -8.518  -2.405 -19.912  0.00  0.00    -0.039 A 
ATOM      7  C   UNL     1      -9.586  -3.170 -19.430  0.00  0.00    +0.004 A 
ATOM      8  C   UNL     1      -9.637  -4.553 -19.649  0.00  0.00    +0.000 A 
ATOM      9  C   UNL     1      -8.625  -5.199 -20.355  0.00  0.00    +0.000 A 
ATOM     10  C   UNL     1      -7.549  -4.467 -20.834  0.00  0.00    +0.000 A 
ATOM     11  C   UNL     1      -7.492  -3.093 -20.605  0.00  0.00    +0.004 A 
ATOM     12  C   UNL     1      -7.966  -0.137 -20.916  0.00  0.00    +0.087 A 
ATOM     13  C   UNL     1      -6.679   0.221 -21.142  0.00  0.00    +0.138 A 
ATOM     14  O   UNL     1      -6.215   0.573 -22.393  0.00  0.00    -0.506 OA
ATOM     15  C   UNL     1      -6.303   1.203 -20.116  0.00  0.00    +0.059 A 
ATOM     16  C   UNL     1      -7.238   2.232 -19.921  0.00  0.00    +0.143 A 
ATOM     17  O   UNL     1      -8.407   2.248 -20.725  0.00  0.00    -0.422 OA
ATOM     18  C   UNL     1      -8.823   1.027 -21.283  0.00  0.00    +0.345 A 
ATOM     19  O   UNL     1      -9.824   0.919 -21.978  0.00  0.00    -0.245 OA
ATOM     20  C   UNL     1      -7.173   3.082 -18.828  0.00  0.00    +0.047 A 
ATOM     21  C   UNL     1      -6.192   2.839 -17.868  0.00  0.00    +0.004 A 
ATOM     22  C   UNL     1      -5.259   1.807 -18.043  0.00  0.00    +0.001 A 
ATOM     23  C   UNL     1      -5.291   1.000 -19.184  0.00  0.00    +0.015 A 
ATOM     24  H   UNL     1      -6.666   0.009 -23.051  0.00  0.00    +0.292 HD
ENDROOT
TORSDOF 1
ENDMDL
MODEL 9
REMARK VINA RESULT:     0.000      7.078     10.437
REMARK INTER + INTRA:           0.000
REMARK INTER:                   0.000
REMARK INTRA:                   0.000
REMARK UNBOUND:                 0.000
REMARK  1 active torsions:
REMARK  status: ('A' for Active; 'I' for Inactive)
ROOT
ATOM      1  C   UNL     1     -10.887  -0.211 -18.869  0.00  0.00    +0.086 C 
ATOM      2  C   UNL     1     -10.384  -1.624 -19.090  0.00  0.00    +0.131 C 
ATOM      3  O   UNL     1     -11.102  -2.471 -19.612  0.00  0.00    -0.298 OA
ATOM      4  C   UNL     1      -8.998  -1.938 -18.561  0.00  0.00    +0.087 C 
ATOM      5  C   UNL     1      -8.012  -2.822 -19.378  0.00  0.00    +0.067 C 
ATOM      6  C   UNL     1      -8.203  -4.343 -19.428  0.00  0.00    -0.039 A 
ATOM      7  C   UNL     1      -9.346  -5.005 -18.968  0.00  0.00    +0.004 A 
ATOM      8  C   UNL     1      -9.414  -6.405 -18.963  0.00  0.00    +0.000 A 
ATOM      9  C   UNL     1      -8.343  -7.171 -19.420  0.00  0.00    +0.000 A 
ATOM     10  C   UNL     1      -7.193  -6.540 -19.871  0.00  0.00    +0.000 A 
ATOM     11  C   UNL     1      -7.121  -5.147 -19.864  0.00  0.00    +0.004 A 
ATOM     12  C   UNL     1      -7.459  -2.279 -20.710  0.00  0.00    +0.087 A 
ATOM     13  C   UNL     1      -6.144  -1.977 -20.826  0.00  0.00    +0.138 A 
ATOM     14  O   UNL     1      -5.519  -1.842 -22.049  0.00  0.00    -0.506 OA
ATOM     15  C   UNL     1      -5.867  -0.843 -19.935  0.00  0.00    +0.059 A 
ATOM     16  C   UNL     1      -6.786   0.214 -20.032  0.00  0.00    +0.143 A 
ATOM     17  O   UNL     1      -7.846   0.109 -20.969  0.00  0.00    -0.422 OA
ATOM     18  C   UNL     1      -8.227  -1.183 -21.369  0.00  0.00    +0.345 A 
ATOM     19  O   UNL     1      -9.138  -1.394 -22.158  0.00  0.00    -0.245 OA
ATOM     20  C   UNL     1      -6.830   1.233 -19.093  0.00  0.00    +0.047 A 
ATOM     21  C   UNL     1      -5.983   1.142 -17.988  0.00  0.00    +0.004 A 
ATOM     22  C   UNL     1      -5.068   0.085 -17.873  0.00  0.00    +0.001 A 
ATOM     23  C   UNL     1      -4.985  -0.899 -18.862  0.00  0.00    +0.015 A 
ATOM     24  H   UNL     1      -5.902  -2.503 -22.658  0.00  0.00    +0.292 HD
ENDROOT
TORSDOF 1
ENDMDL
